# vtk DataFile Version 3.0 
Exported using Morpho https://github.com/Morpho-lang/morpho 
ASCII 
DATASET UNSTRUCTURED_GRID 

POINTS 99 float 
-0.0529672 -0.706114 -0.706114 
-0.439676 -0.439676 -0.783179 
-0.0211638 -0.378553 -0.925337 
0.366611 -0.470624 -0.802564 
-0.706114 -0.0529672 -0.706114 
-0.378553 -0.0211638 -0.925337 
0.00553669 0.0055367 -0.999969 
0.365072 -0.0102221 -0.930923 
0.663336 -0.0973666 -0.74196 
-0.470624 0.366611 -0.802564 
-0.0102221 0.365072 -0.930923 
0.408736 0.408736 -0.816008 
-0.0973666 0.663336 -0.74196 
-0.439676 -0.783179 -0.439676 
-0.0211638 -0.925337 -0.378553 
0.366611 -0.802564 -0.470624 
-0.783179 -0.439676 -0.439676 
-0.377568 -0.377568 -0.377568 
0.0136112 -0.389991 -0.389991 
0.382882 -0.366988 -0.366988 
0.726422 -0.485959 -0.485959 
-0.925337 -0.0211638 -0.378553 
-0.389991 0.0136112 -0.389991 
-0.022225 -0.022225 -0.565835 
0.394065 0.00249149 -0.358592 
0.914281 -0.0813246 -0.396833 
-0.802564 0.366611 -0.470624 
-0.366988 0.382882 -0.366988 
0.00249149 0.394065 -0.358592 
0.300402 0.300402 -0.517238 
0.783108 0.277364 -0.556607 
-0.485959 0.726422 -0.485959 
-0.0813246 0.914281 -0.396833 
0.277364 0.783108 -0.556607 
0.640549 0.640549 -0.423548 
-0.706114 -0.706114 -0.0529672 
-0.378553 -0.925337 -0.0211638 
0.0055367 -0.999969 0.0055367 
0.365072 -0.930923 -0.0102221 
0.663336 -0.74196 -0.0973666 
-0.925337 -0.378553 -0.0211638 
-0.389991 -0.389991 0.0136112 
-0.022225 -0.565835 -0.022225 
0.394065 -0.358592 0.00249149 
0.914281 -0.396833 -0.0813246 
-0.999969 0.00553669 0.00553669 
-0.565835 -0.022225 -0.022225 
0.00684248 0.00684248 0.00684248 
0.587164 0.0185429 0.0185429 
0.999963 0.00606452 0.00606452 
-0.930923 0.365072 -0.0102221 
-0.358592 0.394065 0.00249149 
0.0185429 0.587164 0.0185429 
0.399051 0.399051 -0.0613062 
0.915178 0.374393 -0.149264 
-0.74196 0.663336 -0.0973666 
-0.396833 0.914281 -0.0813246 
0.00606452 0.999963 0.00606452 
0.374393 0.915178 -0.149264 
0.707098 0.707098 0.00493681 
-0.470624 -0.802564 0.366611 
-0.0102221 -0.930923 0.365072 
0.408736 -0.816008 0.408736 
-0.802564 -0.470624 0.366611 
-0.366988 -0.366988 0.382882 
0.00249149 -0.358592 0.394065 
0.300402 -0.517238 0.300402 
0.783108 -0.556607 0.277364 
-0.930923 -0.0102221 0.365072 
-0.358592 0.00249149 0.394065 
0.0185429 0.0185429 0.587164 
0.399051 -0.0613062 0.399051 
0.915178 -0.149264 0.374393 
-0.816008 0.408736 0.408736 
-0.517238 0.300402 0.300402 
-0.0613062 0.399051 0.399051 
0.33345 0.33345 0.33345 
0.898482 0.310428 0.310428 
-0.556607 0.783108 0.277364 
-0.149264 0.915178 0.374393 
0.310428 0.898482 0.310428 
0.663904 0.663904 0.344185 
-0.0973666 -0.74196 0.663336 
-0.485959 -0.485959 0.726422 
-0.0813246 -0.396833 0.914281 
0.277364 -0.556607 0.783108 
0.640549 -0.423548 0.640549 
-0.74196 -0.0973666 0.663336 
-0.396833 -0.0813246 0.914281 
0.00606452 0.00606452 0.999963 
0.374393 -0.149264 0.915178 
0.707098 0.00493681 0.707098 
-0.556607 0.277364 0.783108 
-0.149264 0.374393 0.915178 
0.310428 0.310428 0.898482 
0.663904 0.344185 0.663904 
-0.423548 0.640549 0.640549 
0.00493681 0.707098 0.707098 
0.344185 0.663904 0.663904 


CELLS 1626 6336 
2 2 5 
2 2 6 
2 2 23 
2 5 6 
2 5 23 
2 6 23 
2 2 7 
2 6 7 
2 7 23 
2 5 10 
2 6 10 
2 10 23 
2 7 10 
2 7 11 
2 7 29 
2 10 11 
2 10 29 
2 11 29 
2 23 29 
2 5 9 
2 9 10 
2 9 23 
2 2 3 
2 3 7 
2 3 23 
2 1 2 
2 1 5 
2 1 23 
2 10 12 
2 11 12 
2 12 29 
2 7 8 
2 8 11 
2 8 29 
2 8 30 
2 11 30 
2 29 30 
2 11 33 
2 12 33 
2 29 33 
2 0 2 
2 0 3 
2 0 18 
2 2 18 
2 3 18 
2 4 5 
2 4 9 
2 4 22 
2 5 22 
2 9 22 
2 11 34 
2 29 34 
2 30 34 
2 33 34 
2 0 1 
2 1 18 
2 18 23 
2 0 15 
2 3 15 
2 15 18 
2 4 26 
2 9 26 
2 22 26 
2 1 4 
2 1 22 
2 22 23 
2 0 13 
2 0 17 
2 13 17 
2 13 18 
2 17 18 
2 4 16 
2 4 17 
2 16 17 
2 16 22 
2 17 22 
2 1 13 
2 1 17 
2 17 23 
2 1 16 
2 13 16 
2 4 21 
2 21 22 
2 21 26 
2 0 14 
2 14 15 
2 14 18 
2 9 27 
2 22 27 
2 23 27 
2 9 12 
2 9 31 
2 12 27 
2 12 31 
2 27 31 
2 26 27 
2 26 31 
2 3 19 
2 15 19 
2 18 19 
2 3 20 
2 15 20 
2 19 20 
2 3 8 
2 8 19 
2 8 20 
2 19 23 
2 9 28 
2 23 28 
2 27 28 
2 12 28 
2 28 29 
2 28 33 
2 10 28 
2 12 32 
2 28 32 
2 32 33 
2 22 28 
2 8 24 
2 8 25 
2 24 25 
2 24 30 
2 25 30 
2 7 24 
2 23 24 
2 24 29 
2 3 24 
2 19 24 
2 18 24 
2 18 22 
2 16 21 
2 13 14 
2 27 32 
2 28 31 
2 31 32 
2 20 24 
2 20 25 
2 19 25 
2 24 28 
2 26 55 
2 27 55 
2 31 55 
2 15 39 
2 19 39 
2 20 39 
2 29 53 
2 30 53 
2 34 53 
2 33 53 
2 24 53 
2 28 53 
2 19 44 
2 20 44 
2 25 44 
2 27 56 
2 31 56 
2 32 56 
2 30 54 
2 34 54 
2 53 54 
2 24 54 
2 28 58 
2 33 58 
2 53 58 
2 34 58 
2 13 35 
2 16 35 
2 17 35 
2 14 42 
2 15 42 
2 18 42 
2 19 42 
2 13 42 
2 17 42 
2 16 46 
2 21 46 
2 22 46 
2 17 46 
2 26 46 
2 27 46 
2 16 40 
2 21 40 
2 40 46 
2 13 36 
2 14 36 
2 36 42 
2 14 38 
2 15 38 
2 38 42 
2 21 50 
2 26 50 
2 46 50 
2 27 51 
2 31 51 
2 51 56 
2 26 51 
2 50 51 
2 50 55 
2 51 55 
2 22 51 
2 46 51 
2 55 56 
2 15 43 
2 19 43 
2 42 43 
2 38 43 
2 39 43 
2 38 39 
2 20 43 
2 43 44 
2 39 44 
2 18 43 
2 14 37 
2 37 38 
2 37 42 
2 36 37 
2 21 45 
2 40 45 
2 45 46 
2 45 50 
2 34 59 
2 53 59 
2 54 59 
2 58 59 
2 17 41 
2 22 41 
2 41 46 
2 13 41 
2 41 42 
2 16 41 
2 35 41 
2 35 40 
2 40 41 
2 18 41 
2 36 41 
2 35 36 
2 18 47 
2 42 47 
2 43 47 
2 41 47 
2 23 47 
2 24 47 
2 28 47 
2 17 47 
2 22 47 
2 19 47 
2 47 53 
2 27 47 
2 47 51 
2 24 43 
2 28 51 
2 46 47 
2 25 48 
2 25 54 
2 30 48 
2 48 54 
2 25 49 
2 48 49 
2 49 54 
2 24 48 
2 43 48 
2 47 48 
2 48 53 
2 19 48 
2 44 48 
2 44 49 
2 28 52 
2 47 52 
2 51 52 
2 32 52 
2 32 57 
2 32 58 
2 52 57 
2 52 58 
2 57 58 
2 52 56 
2 56 57 
2 52 53 
2 27 52 
2 33 52 
2 51 78 
2 55 78 
2 56 78 
2 39 67 
2 43 67 
2 44 67 
2 46 74 
2 50 74 
2 51 74 
2 38 66 
2 42 66 
2 43 66 
2 52 80 
2 57 80 
2 58 80 
2 48 77 
2 49 77 
2 54 77 
2 55 74 
2 39 66 
2 53 80 
2 53 77 
2 59 80 
2 59 77 
2 35 60 
2 36 60 
2 41 60 
2 35 63 
2 40 63 
2 41 63 
2 44 72 
2 48 72 
2 49 72 
2 52 79 
2 56 79 
2 57 79 
2 52 78 
2 48 67 
2 74 78 
2 66 67 
2 47 76 
2 48 76 
2 53 76 
2 52 76 
2 76 80 
2 76 77 
2 53 81 
2 59 81 
2 77 81 
2 76 81 
2 80 81 
2 40 68 
2 45 68 
2 46 68 
2 50 68 
2 68 74 
2 38 61 
2 42 61 
2 61 66 
2 36 61 
2 37 61 
2 42 60 
2 60 61 
2 46 63 
2 60 63 
2 63 68 
2 72 77 
2 67 72 
2 43 72 
2 78 79 
2 79 80 
2 51 79 
2 41 64 
2 46 64 
2 63 64 
2 42 64 
2 60 64 
2 46 69 
2 68 69 
2 69 74 
2 51 69 
2 47 69 
2 41 69 
2 47 64 
2 64 69 
2 42 65 
2 43 65 
2 65 66 
2 41 65 
2 64 65 
2 47 65 
2 65 69 
2 61 65 
2 47 71 
2 48 71 
2 71 76 
2 43 71 
2 71 72 
2 65 71 
2 66 71 
2 67 71 
2 51 75 
2 69 75 
2 74 75 
2 47 75 
2 52 75 
2 75 76 
2 75 79 
2 75 78 
2 38 62 
2 39 62 
2 62 66 
2 62 67 
2 61 62 
2 50 73 
2 55 73 
2 73 74 
2 68 73 
2 73 78 
2 63 69 
2 60 65 
2 71 77 
2 75 80 
2 47 70 
2 65 70 
2 69 70 
2 70 71 
2 70 75 
2 70 76 
2 66 86 
2 67 86 
2 71 86 
2 72 86 
2 74 96 
2 75 96 
2 78 96 
2 79 96 
2 60 82 
2 64 82 
2 65 82 
2 61 82 
2 63 87 
2 64 87 
2 69 87 
2 68 87 
2 76 98 
2 80 98 
2 81 98 
2 76 95 
2 77 95 
2 81 95 
2 62 86 
2 73 96 
2 75 98 
2 71 95 
2 71 91 
2 72 91 
2 77 91 
2 75 97 
2 79 97 
2 80 97 
2 66 82 
2 62 82 
2 73 87 
2 74 87 
2 95 98 
2 91 95 
2 86 91 
2 97 98 
2 96 97 
2 60 83 
2 63 83 
2 64 83 
2 64 70 
2 83 87 
2 82 83 
2 74 92 
2 75 92 
2 92 96 
2 69 92 
2 87 92 
2 73 92 
2 65 85 
2 66 85 
2 71 85 
2 85 86 
2 62 85 
2 82 85 
2 76 94 
2 94 95 
2 94 98 
2 69 83 
2 65 83 
2 70 94 
2 75 94 
2 71 94 
2 91 94 
2 94 97 
2 64 88 
2 69 88 
2 70 88 
2 87 88 
2 88 92 
2 83 88 
2 64 84 
2 70 84 
2 84 88 
2 83 84 
2 65 84 
2 82 84 
2 84 85 
2 65 90 
2 71 90 
2 85 90 
2 70 85 
2 70 90 
2 86 90 
2 90 91 
2 75 93 
2 93 96 
2 93 97 
2 69 93 
2 70 93 
2 92 93 
2 70 92 
2 90 94 
2 84 90 
2 93 94 
2 88 93 
2 70 89 
2 88 89 
2 89 93 
2 84 89 
2 89 90 
2 89 94 
3 2 5 6 
3 2 5 23 
3 2 6 23 
3 5 6 23 
3 2 6 7 
3 2 7 23 
3 6 7 23 
3 5 6 10 
3 5 10 23 
3 6 10 23 
3 7 10 11 
3 7 10 29 
3 7 11 29 
3 10 11 29 
3 6 7 10 
3 7 10 23 
3 7 23 29 
3 10 23 29 
3 5 9 10 
3 5 9 23 
3 9 10 23 
3 2 3 7 
3 2 3 23 
3 3 7 23 
3 1 2 5 
3 1 2 23 
3 1 5 23 
3 10 11 12 
3 10 12 29 
3 11 12 29 
3 7 8 11 
3 7 8 29 
3 8 11 29 
3 8 11 30 
3 8 29 30 
3 11 29 30 
3 11 12 33 
3 11 29 33 
3 12 29 33 
3 0 2 3 
3 0 2 18 
3 0 3 18 
3 2 3 18 
3 4 5 9 
3 4 5 22 
3 4 9 22 
3 5 9 22 
3 11 29 34 
3 11 30 34 
3 29 30 34 
3 11 33 34 
3 29 33 34 
3 0 1 2 
3 0 1 18 
3 1 2 18 
3 1 18 23 
3 2 18 23 
3 3 18 23 
3 0 3 15 
3 0 15 18 
3 3 15 18 
3 4 9 26 
3 4 22 26 
3 9 22 26 
3 1 4 5 
3 1 4 22 
3 1 5 22 
3 5 22 23 
3 9 22 23 
3 1 22 23 
3 0 13 17 
3 0 13 18 
3 0 17 18 
3 13 17 18 
3 4 16 17 
3 4 16 22 
3 4 17 22 
3 16 17 22 
3 0 1 13 
3 0 1 17 
3 1 13 17 
3 1 4 17 
3 1 17 22 
3 1 17 23 
3 17 22 23 
3 1 13 16 
3 1 16 17 
3 13 16 17 
3 1 4 16 
3 1 17 18 
3 17 18 23 
3 4 21 22 
3 4 21 26 
3 21 22 26 
3 0 14 15 
3 0 14 18 
3 14 15 18 
3 9 22 27 
3 9 23 27 
3 22 23 27 
3 9 12 27 
3 9 12 31 
3 9 27 31 
3 12 27 31 
3 9 26 27 
3 22 26 27 
3 9 26 31 
3 26 27 31 
3 3 15 19 
3 3 18 19 
3 15 18 19 
3 3 15 20 
3 3 19 20 
3 15 19 20 
3 3 8 19 
3 3 8 20 
3 8 19 20 
3 3 19 23 
3 18 19 23 
3 9 23 28 
3 9 27 28 
3 23 27 28 
3 12 28 29 
3 12 28 33 
3 28 29 33 
3 9 12 28 
3 12 27 28 
3 9 10 12 
3 9 10 28 
3 10 12 28 
3 10 23 28 
3 10 28 29 
3 23 28 29 
3 12 28 32 
3 12 32 33 
3 28 32 33 
3 22 23 28 
3 22 27 28 
3 8 24 25 
3 8 24 30 
3 8 25 30 
3 24 25 30 
3 7 23 24 
3 7 24 29 
3 23 24 29 
3 3 7 24 
3 3 23 24 
3 7 8 24 
3 8 24 29 
3 3 8 24 
3 3 19 24 
3 8 19 24 
3 24 29 30 
3 3 7 8 
3 19 23 24 
3 18 19 24 
3 18 23 24 
3 17 18 22 
3 18 22 23 
3 4 16 21 
3 16 21 22 
3 0 13 14 
3 13 14 18 
3 27 28 31 
3 27 28 32 
3 27 31 32 
3 28 31 32 
3 12 28 31 
3 12 31 32 
3 8 20 24 
3 8 20 25 
3 20 24 25 
3 19 20 24 
3 19 20 25 
3 19 24 25 
3 23 24 28 
3 24 28 29 
3 26 27 55 
3 26 31 55 
3 27 31 55 
3 15 19 39 
3 15 20 39 
3 19 20 39 
3 29 30 53 
3 29 34 53 
3 30 34 53 
3 29 33 53 
3 33 34 53 
3 24 29 53 
3 24 30 53 
3 28 29 53 
3 28 33 53 
3 19 20 44 
3 19 25 44 
3 20 25 44 
3 27 31 56 
3 27 32 56 
3 31 32 56 
3 30 34 54 
3 30 53 54 
3 34 53 54 
3 24 30 54 
3 24 53 54 
3 24 28 53 
3 28 33 58 
3 28 53 58 
3 33 53 58 
3 33 34 58 
3 34 53 58 
3 13 16 35 
3 13 17 35 
3 16 17 35 
3 14 15 42 
3 14 18 42 
3 15 18 42 
3 15 19 42 
3 18 19 42 
3 13 14 42 
3 13 18 42 
3 13 17 42 
3 17 18 42 
3 16 21 46 
3 16 22 46 
3 21 22 46 
3 16 17 46 
3 17 22 46 
3 22 26 46 
3 22 27 46 
3 26 27 46 
3 21 26 46 
3 16 21 40 
3 16 40 46 
3 21 40 46 
3 13 14 36 
3 13 36 42 
3 14 36 42 
3 14 15 38 
3 14 38 42 
3 15 38 42 
3 21 26 50 
3 21 46 50 
3 26 46 50 
3 27 31 51 
3 27 51 56 
3 31 51 56 
3 26 50 51 
3 26 50 55 
3 26 51 55 
3 50 51 55 
3 27 51 55 
3 31 51 55 
3 22 27 51 
3 22 46 51 
3 27 46 51 
3 31 55 56 
3 51 55 56 
3 26 27 51 
3 26 46 51 
3 46 50 51 
3 15 19 43 
3 15 42 43 
3 19 42 43 
3 15 38 43 
3 38 42 43 
3 15 39 43 
3 19 39 43 
3 15 38 39 
3 38 39 43 
3 19 20 43 
3 19 43 44 
3 20 43 44 
3 20 39 43 
3 20 39 44 
3 39 43 44 
3 18 19 43 
3 18 42 43 
3 14 37 38 
3 14 37 42 
3 37 38 42 
3 14 36 37 
3 36 37 42 
3 21 40 45 
3 21 45 46 
3 40 45 46 
3 21 45 50 
3 45 46 50 
3 34 53 59 
3 34 54 59 
3 53 54 59 
3 34 58 59 
3 53 58 59 
3 17 22 41 
3 17 41 46 
3 22 41 46 
3 13 17 41 
3 13 41 42 
3 17 41 42 
3 16 17 41 
3 16 35 41 
3 17 35 41 
3 16 35 40 
3 16 40 41 
3 35 40 41 
3 13 35 41 
3 17 18 41 
3 18 41 42 
3 16 41 46 
3 40 41 46 
3 13 36 41 
3 36 41 42 
3 13 35 36 
3 35 36 41 
3 18 42 47 
3 18 43 47 
3 42 43 47 
3 18 41 47 
3 41 42 47 
3 23 24 47 
3 23 28 47 
3 24 28 47 
3 17 18 47 
3 17 41 47 
3 22 23 47 
3 22 28 47 
3 18 23 47 
3 18 24 47 
3 18 19 47 
3 19 24 47 
3 24 47 53 
3 28 47 53 
3 18 22 47 
3 17 22 47 
3 22 41 47 
3 22 27 47 
3 22 47 51 
3 27 47 51 
3 19 24 43 
3 19 43 47 
3 24 43 47 
3 27 28 47 
3 27 28 51 
3 28 47 51 
3 22 46 47 
3 46 47 51 
3 41 46 47 
3 25 30 48 
3 25 30 54 
3 25 48 54 
3 30 48 54 
3 25 48 49 
3 25 49 54 
3 48 49 54 
3 24 43 48 
3 24 47 48 
3 43 47 48 
3 24 48 53 
3 47 48 53 
3 24 30 48 
3 24 48 54 
3 24 25 48 
3 19 43 48 
3 19 44 48 
3 43 44 48 
3 19 24 48 
3 19 25 48 
3 25 44 48 
3 48 53 54 
3 25 44 49 
3 44 48 49 
3 28 47 52 
3 28 51 52 
3 47 51 52 
3 32 52 57 
3 32 52 58 
3 32 57 58 
3 52 57 58 
3 32 52 56 
3 32 56 57 
3 52 56 57 
3 28 52 53 
3 28 52 58 
3 52 53 58 
3 47 52 53 
3 27 28 52 
3 27 32 52 
3 28 32 52 
3 27 51 52 
3 28 33 52 
3 33 52 58 
3 32 33 52 
3 32 33 58 
3 27 52 56 
3 51 52 56 
3 51 55 78 
3 51 56 78 
3 55 56 78 
3 39 43 67 
3 39 44 67 
3 43 44 67 
3 46 50 74 
3 46 51 74 
3 50 51 74 
3 38 42 66 
3 38 43 66 
3 42 43 66 
3 52 57 80 
3 52 58 80 
3 57 58 80 
3 48 49 77 
3 48 54 77 
3 49 54 77 
3 50 55 74 
3 51 55 74 
3 38 39 66 
3 39 43 66 
3 52 53 80 
3 53 58 80 
3 48 53 77 
3 53 54 77 
3 53 59 80 
3 58 59 80 
3 53 59 77 
3 54 59 77 
3 35 36 60 
3 35 41 60 
3 36 41 60 
3 35 40 63 
3 35 41 63 
3 40 41 63 
3 44 48 72 
3 44 49 72 
3 48 49 72 
3 52 56 79 
3 52 57 79 
3 56 57 79 
3 51 52 78 
3 52 56 78 
3 43 48 67 
3 44 48 67 
3 51 74 78 
3 55 74 78 
3 39 66 67 
3 43 66 67 
3 47 48 76 
3 47 53 76 
3 48 53 76 
3 52 53 76 
3 52 76 80 
3 53 76 80 
3 47 52 76 
3 48 76 77 
3 53 76 77 
3 53 59 81 
3 53 77 81 
3 59 77 81 
3 53 76 81 
3 76 77 81 
3 53 80 81 
3 59 80 81 
3 76 80 81 
3 40 45 68 
3 40 46 68 
3 45 46 68 
3 46 50 68 
3 46 68 74 
3 50 68 74 
3 45 50 68 
3 38 42 61 
3 38 61 66 
3 42 61 66 
3 36 37 61 
3 36 42 61 
3 37 42 61 
3 37 38 61 
3 36 42 60 
3 41 42 60 
3 36 60 61 
3 42 60 61 
3 40 46 63 
3 41 46 63 
3 35 60 63 
3 41 60 63 
3 40 63 68 
3 46 63 68 
3 48 72 77 
3 49 72 77 
3 44 67 72 
3 48 67 72 
3 43 48 72 
3 43 67 72 
3 52 78 79 
3 56 78 79 
3 52 79 80 
3 57 79 80 
3 51 52 79 
3 51 78 79 
3 41 46 64 
3 41 63 64 
3 46 63 64 
3 41 42 64 
3 41 60 64 
3 42 60 64 
3 60 63 64 
3 46 68 69 
3 46 69 74 
3 68 69 74 
3 46 51 69 
3 51 69 74 
3 46 47 69 
3 47 51 69 
3 41 47 64 
3 41 47 69 
3 41 64 69 
3 47 64 69 
3 41 46 69 
3 46 64 69 
3 42 43 65 
3 42 65 66 
3 43 65 66 
3 41 42 65 
3 41 64 65 
3 42 64 65 
3 47 64 65 
3 47 65 69 
3 64 65 69 
3 42 47 65 
3 43 47 65 
3 42 61 65 
3 61 65 66 
3 41 47 65 
3 47 48 71 
3 47 71 76 
3 48 71 76 
3 43 47 71 
3 43 48 71 
3 43 71 72 
3 48 71 72 
3 43 65 71 
3 47 65 71 
3 43 66 71 
3 65 66 71 
3 43 67 71 
3 67 71 72 
3 51 69 75 
3 51 74 75 
3 69 74 75 
3 47 51 75 
3 47 69 75 
3 47 52 75 
3 47 75 76 
3 52 75 76 
3 51 52 75 
3 51 75 79 
3 52 75 79 
3 51 75 78 
3 75 78 79 
3 38 39 62 
3 38 62 66 
3 39 62 66 
3 39 62 67 
3 62 66 67 
3 38 61 62 
3 61 62 66 
3 50 55 73 
3 50 73 74 
3 55 73 74 
3 50 68 73 
3 68 73 74 
3 55 73 78 
3 73 74 78 
3 46 63 69 
3 63 68 69 
3 63 64 69 
3 42 60 65 
3 60 61 65 
3 60 64 65 
3 66 67 71 
3 48 71 77 
3 71 72 77 
3 71 76 77 
3 52 75 80 
3 75 79 80 
3 74 75 78 
3 75 76 80 
3 47 65 70 
3 47 69 70 
3 65 69 70 
3 47 70 71 
3 65 70 71 
3 47 70 75 
3 47 70 76 
3 70 75 76 
3 70 71 76 
3 69 70 75 
3 66 67 86 
3 66 71 86 
3 67 71 86 
3 67 72 86 
3 71 72 86 
3 74 75 96 
3 74 78 96 
3 75 78 96 
3 75 79 96 
3 78 79 96 
3 60 64 82 
3 60 65 82 
3 64 65 82 
3 60 61 82 
3 61 65 82 
3 63 64 87 
3 63 69 87 
3 64 69 87 
3 63 68 87 
3 68 69 87 
3 76 80 98 
3 76 81 98 
3 80 81 98 
3 76 77 95 
3 76 81 95 
3 77 81 95 
3 62 66 86 
3 62 67 86 
3 73 74 96 
3 73 78 96 
3 75 76 98 
3 75 80 98 
3 71 76 95 
3 71 77 95 
3 71 72 91 
3 71 77 91 
3 72 77 91 
3 75 79 97 
3 75 80 97 
3 79 80 97 
3 61 66 82 
3 65 66 82 
3 61 62 82 
3 62 66 82 
3 68 73 87 
3 68 74 87 
3 73 74 87 
3 69 74 87 
3 76 95 98 
3 81 95 98 
3 71 91 95 
3 77 91 95 
3 71 86 91 
3 72 86 91 
3 75 97 98 
3 80 97 98 
3 75 96 97 
3 79 96 97 
3 60 63 83 
3 60 64 83 
3 63 64 83 
3 64 65 70 
3 64 69 70 
3 63 83 87 
3 64 83 87 
3 60 82 83 
3 64 82 83 
3 74 75 92 
3 74 92 96 
3 75 92 96 
3 69 74 92 
3 69 87 92 
3 74 87 92 
3 69 75 92 
3 73 74 92 
3 73 92 96 
3 73 87 92 
3 65 66 85 
3 65 71 85 
3 66 71 85 
3 66 85 86 
3 71 85 86 
3 62 66 85 
3 62 82 85 
3 66 82 85 
3 65 82 85 
3 62 85 86 
3 76 94 95 
3 76 94 98 
3 94 95 98 
3 64 69 83 
3 69 83 87 
3 64 65 83 
3 65 82 83 
3 70 75 94 
3 70 76 94 
3 75 76 94 
3 70 71 94 
3 71 76 94 
3 71 91 94 
3 71 94 95 
3 91 94 95 
3 75 94 98 
3 75 94 97 
3 94 97 98 
3 64 69 88 
3 64 70 88 
3 69 70 88 
3 69 87 88 
3 69 88 92 
3 87 88 92 
3 69 83 88 
3 83 87 88 
3 64 83 88 
3 64 70 84 
3 64 84 88 
3 70 84 88 
3 64 83 84 
3 83 84 88 
3 65 82 84 
3 65 84 85 
3 82 84 85 
3 65 83 84 
3 82 83 84 
3 64 65 84 
3 65 70 84 
3 65 71 90 
3 65 85 90 
3 71 85 90 
3 65 70 85 
3 65 70 90 
3 70 85 90 
3 71 86 90 
3 71 90 91 
3 86 90 91 
3 85 86 90 
3 70 71 90 
3 75 93 96 
3 75 93 97 
3 93 96 97 
3 69 70 93 
3 69 75 93 
3 70 75 93 
3 69 92 93 
3 75 92 93 
3 69 70 92 
3 70 92 93 
3 92 93 96 
3 70 88 92 
3 70 84 85 
3 70 90 94 
3 71 90 94 
3 90 91 94 
3 70 84 90 
3 84 85 90 
3 75 93 94 
3 93 94 97 
3 70 93 94 
3 70 88 93 
3 88 92 93 
3 70 88 89 
3 70 89 93 
3 88 89 93 
3 70 84 89 
3 84 88 89 
3 70 89 90 
3 84 89 90 
3 70 89 94 
3 89 93 94 
3 89 90 94 
4 2 5 6 23 
4 2 6 7 23 
4 5 6 10 23 
4 7 10 11 29 
4 6 7 10 23 
4 7 10 23 29 
4 5 9 10 23 
4 2 3 7 23 
4 1 2 5 23 
4 10 11 12 29 
4 7 8 11 29 
4 8 11 29 30 
4 11 12 29 33 
4 0 2 3 18 
4 4 5 9 22 
4 11 29 30 34 
4 11 29 33 34 
4 0 1 2 18 
4 1 2 18 23 
4 2 3 18 23 
4 0 3 15 18 
4 4 9 22 26 
4 1 4 5 22 
4 5 9 22 23 
4 1 5 22 23 
4 0 13 17 18 
4 4 16 17 22 
4 0 1 13 17 
4 1 4 17 22 
4 1 17 22 23 
4 1 13 16 17 
4 1 4 16 17 
4 1 17 18 23 
4 0 1 17 18 
4 4 21 22 26 
4 0 14 15 18 
4 9 22 23 27 
4 9 12 27 31 
4 9 22 26 27 
4 9 26 27 31 
4 3 15 18 19 
4 3 15 19 20 
4 3 8 19 20 
4 3 18 19 23 
4 9 23 27 28 
4 12 28 29 33 
4 9 12 27 28 
4 9 10 12 28 
4 10 23 28 29 
4 9 10 23 28 
4 12 28 32 33 
4 22 23 27 28 
4 10 12 28 29 
4 8 24 25 30 
4 7 23 24 29 
4 3 7 23 24 
4 7 8 24 29 
4 3 8 19 24 
4 8 24 29 30 
4 3 7 8 24 
4 3 19 23 24 
4 18 19 23 24 
4 17 18 22 23 
4 4 16 21 22 
4 0 13 14 18 
4 27 28 31 32 
4 12 27 28 31 
4 12 28 31 32 
4 8 20 24 25 
4 19 20 24 25 
4 8 19 20 24 
4 23 24 28 29 
4 26 27 31 55 
4 15 19 20 39 
4 29 30 34 53 
4 29 33 34 53 
4 24 29 30 53 
4 28 29 33 53 
4 19 20 25 44 
4 27 31 32 56 
4 30 34 53 54 
4 24 30 53 54 
4 24 28 29 53 
4 28 33 53 58 
4 33 34 53 58 
4 13 16 17 35 
4 14 15 18 42 
4 15 18 19 42 
4 13 14 18 42 
4 13 17 18 42 
4 16 21 22 46 
4 16 17 22 46 
4 22 26 27 46 
4 21 22 26 46 
4 16 21 40 46 
4 13 14 36 42 
4 14 15 38 42 
4 21 26 46 50 
4 27 31 51 56 
4 26 50 51 55 
4 27 31 51 55 
4 22 27 46 51 
4 31 51 55 56 
4 26 27 46 51 
4 26 27 51 55 
4 26 46 50 51 
4 15 19 42 43 
4 15 38 42 43 
4 15 19 39 43 
4 15 38 39 43 
4 19 20 43 44 
4 20 39 43 44 
4 18 19 42 43 
4 19 20 39 43 
4 14 37 38 42 
4 14 36 37 42 
4 21 40 45 46 
4 21 45 46 50 
4 34 53 54 59 
4 34 53 58 59 
4 17 22 41 46 
4 13 17 41 42 
4 16 17 35 41 
4 16 35 40 41 
4 13 17 35 41 
4 17 18 41 42 
4 16 40 41 46 
4 13 36 41 42 
4 16 17 41 46 
4 13 35 36 41 
4 18 42 43 47 
4 18 41 42 47 
4 23 24 28 47 
4 17 18 41 47 
4 22 23 28 47 
4 18 23 24 47 
4 18 19 24 47 
4 24 28 47 53 
4 18 22 23 47 
4 17 22 41 47 
4 17 18 22 47 
4 22 27 47 51 
4 19 24 43 47 
4 27 28 47 51 
4 18 19 43 47 
4 22 46 47 51 
4 22 27 28 47 
4 22 41 46 47 
4 25 30 48 54 
4 25 48 49 54 
4 24 43 47 48 
4 24 47 48 53 
4 24 30 48 54 
4 24 25 30 48 
4 19 43 44 48 
4 19 24 43 48 
4 19 25 44 48 
4 24 48 53 54 
4 25 44 48 49 
4 19 24 25 48 
4 28 47 51 52 
4 32 52 57 58 
4 32 52 56 57 
4 28 52 53 58 
4 28 47 52 53 
4 27 28 32 52 
4 27 28 51 52 
4 28 33 52 58 
4 32 33 52 58 
4 28 32 33 52 
4 27 51 52 56 
4 27 32 52 56 
4 51 55 56 78 
4 39 43 44 67 
4 46 50 51 74 
4 38 42 43 66 
4 52 57 58 80 
4 48 49 54 77 
4 50 51 55 74 
4 38 39 43 66 
4 52 53 58 80 
4 48 53 54 77 
4 53 58 59 80 
4 53 54 59 77 
4 35 36 41 60 
4 35 40 41 63 
4 44 48 49 72 
4 52 56 57 79 
4 51 52 56 78 
4 43 44 48 67 
4 51 55 74 78 
4 39 43 66 67 
4 47 48 53 76 
4 52 53 76 80 
4 47 52 53 76 
4 48 53 76 77 
4 53 59 77 81 
4 53 76 77 81 
4 53 59 80 81 
4 53 76 80 81 
4 40 45 46 68 
4 46 50 68 74 
4 45 46 50 68 
4 38 42 61 66 
4 36 37 42 61 
4 37 38 42 61 
4 36 41 42 60 
4 36 42 60 61 
4 40 41 46 63 
4 35 41 60 63 
4 40 46 63 68 
4 48 49 72 77 
4 44 48 67 72 
4 43 48 67 72 
4 52 56 78 79 
4 52 57 79 80 
4 51 52 78 79 
4 41 46 63 64 
4 41 42 60 64 
4 41 60 63 64 
4 46 68 69 74 
4 46 51 69 74 
4 46 47 51 69 
4 41 47 64 69 
4 41 46 47 69 
4 41 46 64 69 
4 42 43 65 66 
4 41 42 64 65 
4 47 64 65 69 
4 42 43 47 65 
4 42 61 65 66 
4 41 47 64 65 
4 41 42 47 65 
4 47 48 71 76 
4 43 47 48 71 
4 43 48 71 72 
4 43 47 65 71 
4 43 65 66 71 
4 43 67 71 72 
4 51 69 74 75 
4 47 51 69 75 
4 47 52 75 76 
4 51 52 75 79 
4 51 75 78 79 
4 47 51 52 75 
4 38 39 62 66 
4 39 62 66 67 
4 38 61 62 66 
4 50 55 73 74 
4 50 68 73 74 
4 55 73 74 78 
4 46 63 68 69 
4 46 63 64 69 
4 42 60 61 65 
4 42 60 64 65 
4 43 66 67 71 
4 48 71 72 77 
4 48 71 76 77 
4 52 75 79 80 
4 51 74 75 78 
4 52 75 76 80 
4 47 65 69 70 
4 47 65 70 71 
4 47 70 75 76 
4 47 70 71 76 
4 47 69 70 75 
4 66 67 71 86 
4 67 71 72 86 
4 74 75 78 96 
4 75 78 79 96 
4 60 64 65 82 
4 60 61 65 82 
4 63 64 69 87 
4 63 68 69 87 
4 76 80 81 98 
4 76 77 81 95 
4 62 66 67 86 
4 73 74 78 96 
4 75 76 80 98 
4 71 76 77 95 
4 71 72 77 91 
4 75 79 80 97 
4 61 65 66 82 
4 61 62 66 82 
4 68 73 74 87 
4 68 69 74 87 
4 76 81 95 98 
4 71 77 91 95 
4 71 72 86 91 
4 75 80 97 98 
4 75 79 96 97 
4 60 63 64 83 
4 64 65 69 70 
4 63 64 83 87 
4 60 64 82 83 
4 74 75 92 96 
4 69 74 87 92 
4 69 74 75 92 
4 73 74 92 96 
4 73 74 87 92 
4 65 66 71 85 
4 66 71 85 86 
4 62 66 82 85 
4 65 66 82 85 
4 62 66 85 86 
4 76 94 95 98 
4 64 69 83 87 
4 64 65 82 83 
4 70 75 76 94 
4 70 71 76 94 
4 71 91 94 95 
4 75 76 94 98 
4 71 76 94 95 
4 75 94 97 98 
4 64 69 70 88 
4 69 87 88 92 
4 69 83 87 88 
4 64 69 83 88 
4 64 70 84 88 
4 64 83 84 88 
4 65 82 84 85 
4 65 82 83 84 
4 64 65 70 84 
4 64 65 83 84 
4 65 71 85 90 
4 65 70 85 90 
4 71 86 90 91 
4 71 85 86 90 
4 65 70 71 90 
4 75 93 96 97 
4 69 70 75 93 
4 69 75 92 93 
4 69 70 92 93 
4 75 92 93 96 
4 69 70 88 92 
4 65 70 84 85 
4 70 71 90 94 
4 71 90 91 94 
4 70 84 85 90 
4 75 93 94 97 
4 70 75 93 94 
4 70 88 92 93 
4 70 88 89 93 
4 70 84 88 89 
4 70 84 89 90 
4 70 89 93 94 
4 70 89 90 94 


CELL_TYPES 1626
3 
3 
3 
3 
3 
3 
3 
3 
3 
3 
3 
3 
3 
3 
3 
3 
3 
3 
3 
3 
3 
3 
3 
3 
3 
3 
3 
3 
3 
3 
3 
3 
3 
3 
3 
3 
3 
3 
3 
3 
3 
3 
3 
3 
3 
3 
3 
3 
3 
3 
3 
3 
3 
3 
3 
3 
3 
3 
3 
3 
3 
3 
3 
3 
3 
3 
3 
3 
3 
3 
3 
3 
3 
3 
3 
3 
3 
3 
3 
3 
3 
3 
3 
3 
3 
3 
3 
3 
3 
3 
3 
3 
3 
3 
3 
3 
3 
3 
3 
3 
3 
3 
3 
3 
3 
3 
3 
3 
3 
3 
3 
3 
3 
3 
3 
3 
3 
3 
3 
3 
3 
3 
3 
3 
3 
3 
3 
3 
3 
3 
3 
3 
3 
3 
3 
3 
3 
3 
3 
3 
3 
3 
3 
3 
3 
3 
3 
3 
3 
3 
3 
3 
3 
3 
3 
3 
3 
3 
3 
3 
3 
3 
3 
3 
3 
3 
3 
3 
3 
3 
3 
3 
3 
3 
3 
3 
3 
3 
3 
3 
3 
3 
3 
3 
3 
3 
3 
3 
3 
3 
3 
3 
3 
3 
3 
3 
3 
3 
3 
3 
3 
3 
3 
3 
3 
3 
3 
3 
3 
3 
3 
3 
3 
3 
3 
3 
3 
3 
3 
3 
3 
3 
3 
3 
3 
3 
3 
3 
3 
3 
3 
3 
3 
3 
3 
3 
3 
3 
3 
3 
3 
3 
3 
3 
3 
3 
3 
3 
3 
3 
3 
3 
3 
3 
3 
3 
3 
3 
3 
3 
3 
3 
3 
3 
3 
3 
3 
3 
3 
3 
3 
3 
3 
3 
3 
3 
3 
3 
3 
3 
3 
3 
3 
3 
3 
3 
3 
3 
3 
3 
3 
3 
3 
3 
3 
3 
3 
3 
3 
3 
3 
3 
3 
3 
3 
3 
3 
3 
3 
3 
3 
3 
3 
3 
3 
3 
3 
3 
3 
3 
3 
3 
3 
3 
3 
3 
3 
3 
3 
3 
3 
3 
3 
3 
3 
3 
3 
3 
3 
3 
3 
3 
3 
3 
3 
3 
3 
3 
3 
3 
3 
3 
3 
3 
3 
3 
3 
3 
3 
3 
3 
3 
3 
3 
3 
3 
3 
3 
3 
3 
3 
3 
3 
3 
3 
3 
3 
3 
3 
3 
3 
3 
3 
3 
3 
3 
3 
3 
3 
3 
3 
3 
3 
3 
3 
3 
3 
3 
3 
3 
3 
3 
3 
3 
3 
3 
3 
3 
3 
3 
3 
3 
3 
3 
3 
3 
3 
3 
3 
3 
3 
3 
3 
3 
3 
3 
3 
3 
3 
3 
3 
3 
3 
3 
3 
3 
3 
3 
3 
3 
3 
3 
3 
3 
3 
3 
3 
3 
3 
3 
3 
3 
3 
3 
3 
3 
3 
3 
3 
3 
3 
3 
3 
3 
3 
3 
3 
3 
3 
3 
3 
3 
3 
3 
3 
3 
3 
3 
3 
3 
3 
3 
3 
3 
3 
3 
3 
3 
3 
3 
3 
3 
3 
3 
3 
3 
3 
3 
3 
3 
3 
3 
3 
3 
3 
3 
3 
3 
3 
3 
3 
3 
3 
3 
3 
5 
5 
5 
5 
5 
5 
5 
5 
5 
5 
5 
5 
5 
5 
5 
5 
5 
5 
5 
5 
5 
5 
5 
5 
5 
5 
5 
5 
5 
5 
5 
5 
5 
5 
5 
5 
5 
5 
5 
5 
5 
5 
5 
5 
5 
5 
5 
5 
5 
5 
5 
5 
5 
5 
5 
5 
5 
5 
5 
5 
5 
5 
5 
5 
5 
5 
5 
5 
5 
5 
5 
5 
5 
5 
5 
5 
5 
5 
5 
5 
5 
5 
5 
5 
5 
5 
5 
5 
5 
5 
5 
5 
5 
5 
5 
5 
5 
5 
5 
5 
5 
5 
5 
5 
5 
5 
5 
5 
5 
5 
5 
5 
5 
5 
5 
5 
5 
5 
5 
5 
5 
5 
5 
5 
5 
5 
5 
5 
5 
5 
5 
5 
5 
5 
5 
5 
5 
5 
5 
5 
5 
5 
5 
5 
5 
5 
5 
5 
5 
5 
5 
5 
5 
5 
5 
5 
5 
5 
5 
5 
5 
5 
5 
5 
5 
5 
5 
5 
5 
5 
5 
5 
5 
5 
5 
5 
5 
5 
5 
5 
5 
5 
5 
5 
5 
5 
5 
5 
5 
5 
5 
5 
5 
5 
5 
5 
5 
5 
5 
5 
5 
5 
5 
5 
5 
5 
5 
5 
5 
5 
5 
5 
5 
5 
5 
5 
5 
5 
5 
5 
5 
5 
5 
5 
5 
5 
5 
5 
5 
5 
5 
5 
5 
5 
5 
5 
5 
5 
5 
5 
5 
5 
5 
5 
5 
5 
5 
5 
5 
5 
5 
5 
5 
5 
5 
5 
5 
5 
5 
5 
5 
5 
5 
5 
5 
5 
5 
5 
5 
5 
5 
5 
5 
5 
5 
5 
5 
5 
5 
5 
5 
5 
5 
5 
5 
5 
5 
5 
5 
5 
5 
5 
5 
5 
5 
5 
5 
5 
5 
5 
5 
5 
5 
5 
5 
5 
5 
5 
5 
5 
5 
5 
5 
5 
5 
5 
5 
5 
5 
5 
5 
5 
5 
5 
5 
5 
5 
5 
5 
5 
5 
5 
5 
5 
5 
5 
5 
5 
5 
5 
5 
5 
5 
5 
5 
5 
5 
5 
5 
5 
5 
5 
5 
5 
5 
5 
5 
5 
5 
5 
5 
5 
5 
5 
5 
5 
5 
5 
5 
5 
5 
5 
5 
5 
5 
5 
5 
5 
5 
5 
5 
5 
5 
5 
5 
5 
5 
5 
5 
5 
5 
5 
5 
5 
5 
5 
5 
5 
5 
5 
5 
5 
5 
5 
5 
5 
5 
5 
5 
5 
5 
5 
5 
5 
5 
5 
5 
5 
5 
5 
5 
5 
5 
5 
5 
5 
5 
5 
5 
5 
5 
5 
5 
5 
5 
5 
5 
5 
5 
5 
5 
5 
5 
5 
5 
5 
5 
5 
5 
5 
5 
5 
5 
5 
5 
5 
5 
5 
5 
5 
5 
5 
5 
5 
5 
5 
5 
5 
5 
5 
5 
5 
5 
5 
5 
5 
5 
5 
5 
5 
5 
5 
5 
5 
5 
5 
5 
5 
5 
5 
5 
5 
5 
5 
5 
5 
5 
5 
5 
5 
5 
5 
5 
5 
5 
5 
5 
5 
5 
5 
5 
5 
5 
5 
5 
5 
5 
5 
5 
5 
5 
5 
5 
5 
5 
5 
5 
5 
5 
5 
5 
5 
5 
5 
5 
5 
5 
5 
5 
5 
5 
5 
5 
5 
5 
5 
5 
5 
5 
5 
5 
5 
5 
5 
5 
5 
5 
5 
5 
5 
5 
5 
5 
5 
5 
5 
5 
5 
5 
5 
5 
5 
5 
5 
5 
5 
5 
5 
5 
5 
5 
5 
5 
5 
5 
5 
5 
5 
5 
5 
5 
5 
5 
5 
5 
5 
5 
5 
5 
5 
5 
5 
5 
5 
5 
5 
5 
5 
5 
5 
5 
5 
5 
5 
5 
5 
5 
5 
5 
5 
5 
5 
5 
5 
5 
5 
5 
5 
5 
5 
5 
5 
5 
5 
5 
5 
5 
5 
5 
5 
5 
5 
5 
5 
5 
5 
5 
5 
5 
5 
5 
5 
5 
5 
5 
5 
5 
5 
5 
5 
5 
5 
5 
5 
5 
5 
5 
5 
5 
5 
5 
5 
5 
5 
5 
5 
5 
5 
5 
5 
5 
5 
5 
5 
5 
5 
5 
5 
5 
5 
5 
5 
5 
5 
5 
5 
5 
5 
5 
5 
5 
5 
5 
5 
5 
5 
5 
5 
5 
5 
5 
5 
5 
5 
5 
5 
5 
5 
5 
5 
5 
5 
5 
5 
5 
5 
5 
5 
5 
5 
5 
5 
5 
5 
5 
5 
5 
5 
5 
5 
5 
5 
5 
5 
5 
5 
5 
5 
5 
5 
5 
5 
5 
5 
5 
5 
5 
5 
5 
5 
5 
5 
5 
5 
10 
10 
10 
10 
10 
10 
10 
10 
10 
10 
10 
10 
10 
10 
10 
10 
10 
10 
10 
10 
10 
10 
10 
10 
10 
10 
10 
10 
10 
10 
10 
10 
10 
10 
10 
10 
10 
10 
10 
10 
10 
10 
10 
10 
10 
10 
10 
10 
10 
10 
10 
10 
10 
10 
10 
10 
10 
10 
10 
10 
10 
10 
10 
10 
10 
10 
10 
10 
10 
10 
10 
10 
10 
10 
10 
10 
10 
10 
10 
10 
10 
10 
10 
10 
10 
10 
10 
10 
10 
10 
10 
10 
10 
10 
10 
10 
10 
10 
10 
10 
10 
10 
10 
10 
10 
10 
10 
10 
10 
10 
10 
10 
10 
10 
10 
10 
10 
10 
10 
10 
10 
10 
10 
10 
10 
10 
10 
10 
10 
10 
10 
10 
10 
10 
10 
10 
10 
10 
10 
10 
10 
10 
10 
10 
10 
10 
10 
10 
10 
10 
10 
10 
10 
10 
10 
10 
10 
10 
10 
10 
10 
10 
10 
10 
10 
10 
10 
10 
10 
10 
10 
10 
10 
10 
10 
10 
10 
10 
10 
10 
10 
10 
10 
10 
10 
10 
10 
10 
10 
10 
10 
10 
10 
10 
10 
10 
10 
10 
10 
10 
10 
10 
10 
10 
10 
10 
10 
10 
10 
10 
10 
10 
10 
10 
10 
10 
10 
10 
10 
10 
10 
10 
10 
10 
10 
10 
10 
10 
10 
10 
10 
10 
10 
10 
10 
10 
10 
10 
10 
10 
10 
10 
10 
10 
10 
10 
10 
10 
10 
10 
10 
10 
10 
10 
10 
10 
10 
10 
10 
10 
10 
10 
10 
10 
10 
10 
10 
10 
10 
10 
10 
10 
10 
10 
10 
10 
10 
10 
10 
10 
10 
10 
10 
10 
10 
10 
10 
10 
10 
10 
10 
10 
10 
10 
10 
10 
10 
10 
10 
10 
10 
10 
10 
10 
10 
10 
10 
10 
10 
10 
10 
10 
10 
10 
10 
10 
10 
10 
10 
10 
10 
10 
10 
10 
10 
10 
10 
10 
10 
10 
10 
10 
10 
10 
10 
10 
10 
10 
10 
10 
10 
10 
10 
10 
10 
10 
10 


POINT_DATA 99 
VECTORS director float
1 0 0 
1 0 0 
1 0 0 
1 0 0 
1 0 0 
1 0 0 
1 0 0 
1 0 0 
1 0 0 
1 0 0 
1 0 0 
1 0 0 
1 0 0 
1 0 0 
1 0 0 
1 0 0 
1 0 0 
1 0 0 
1 0 0 
1 0 0 
1 0 0 
1 0 0 
1 0 0 
1 0 0 
1 0 0 
1 0 0 
1 0 0 
1 0 0 
1 0 0 
1 0 0 
1 0 0 
1 0 0 
1 0 0 
1 0 0 
1 0 0 
1 0 0 
1 0 0 
1 0 0 
1 0 0 
1 0 0 
1 0 0 
1 0 0 
1 0 0 
1 0 0 
1 0 0 
1 0 0 
1 0 0 
1 0 0 
1 0 0 
1 0 0 
1 0 0 
1 0 0 
1 0 0 
1 0 0 
1 0 0 
1 0 0 
1 0 0 
1 0 0 
1 0 0 
1 0 0 
1 0 0 
1 0 0 
1 0 0 
1 0 0 
1 0 0 
1 0 0 
1 0 0 
1 0 0 
1 0 0 
1 0 0 
1 0 0 
1 0 0 
1 0 0 
1 0 0 
1 0 0 
1 0 0 
1 0 0 
1 0 0 
1 0 0 
1 0 0 
1 0 0 
1 0 0 
1 0 0 
1 0 0 
1 0 0 
1 0 0 
1 0 0 
1 0 0 
1 0 0 
1 0 0 
1 0 0 
1 0 0 
1 0 0 
1 0 0 
1 0 0 
1 0 0 
1 0 0 
1 0 0 
1 0 0 


