# vtk DataFile Version 3.0 
Exported using Morpho https://github.com/Morpho-lang/morpho 
ASCII 
DATASET UNSTRUCTURED_GRID 

POINTS 93 float 
-1 0 0 
-0.951057 -0.309017 0 
-0.951057 0.309017 0 
-0.809017 -0.587785 0 
-0.809017 0.587785 0 
-0.587785 -0.809017 0 
-0.587785 0.809017 0 
-0.5 -0.5 0 
-0.5 0 0 
-0.5 0.5 0 
-0.309017 -0.951057 0 
-0.309017 0.951057 0 
0 -1 0 
0 -0.5 0 
0 0 0 
0 0.5 0 
0 1 0 
0.309017 -0.951057 0 
0.309017 0.951057 0 
0.5 -0.5 0 
0.5 0 0 
0.5 0.5 0 
0.587785 -0.809017 0 
0.587785 0.809017 0 
0.809017 -0.587785 0 
0.809017 0.587785 0 
0.951057 -0.309017 0 
0.951057 0.309017 0 
1 0 0 
-0.725529 -0.404508 0 
-0.880037 -0.448401 0 
-0.654508 -0.543893 0 
-0.698401 -0.698401 0 
-0.543893 -0.654508 0 
-0.154508 -0.975529 0 
0 -0.75 0 
-0.154508 -0.725529 0 
-0.5 -0.25 0 
-0.725529 -0.154508 0 
-0.25 -0.5 0 
-0.404508 -0.725529 0 
0.154508 -0.975529 0 
0.154508 -0.725529 0 
-0.448401 -0.880037 0 
-0.25 -0.25 0 
-0.725529 0.404508 0 
-0.654508 0.543893 0 
-0.880037 0.448401 0 
-0.725529 0.154508 0 
-0.975529 0.154508 0 
-0.75 0 0 
-0.543893 0.654508 0 
-0.698401 0.698401 0 
-0.5 0.25 0 
-0.25 0 0 
-0.25 0.25 0 
-0.448401 0.880037 0 
-0.404508 0.725529 0 
-0.25 0.5 0 
-0.154508 0.725529 0 
-0.975529 -0.154508 0 
0 -0.25 0 
0.25 -0.5 0 
0.25 -0.25 0 
0.404508 -0.725529 0 
0.448401 -0.880037 0 
0.543893 -0.654508 0 
0.5 -0.25 0 
0.25 0 0 
0.725529 -0.404508 0 
0.654508 -0.543893 0 
0.880037 -0.448401 0 
0.725529 -0.154508 0 
0.975529 -0.154508 0 
0.75 0 0 
0.698401 -0.698401 0 
0.5 0.25 0 
0.25 0.25 0 
0.25 0.5 0 
0.404508 0.725529 0 
0.154508 0.725529 0 
0 0.25 0 
0.154508 0.975529 0 
0 0.75 0 
0.543893 0.654508 0 
0.448401 0.880037 0 
-0.154508 0.975529 0 
0.654508 0.543893 0 
0.725529 0.404508 0 
0.880037 0.448401 0 
0.698401 0.698401 0 
0.725529 0.154508 0 
0.975529 0.154508 0 


CELLS 380 1284 
2 1 29 
2 1 30 
2 3 31 
2 3 32 
2 5 33 
2 10 34 
2 12 35 
2 10 36 
2 7 37 
2 1 38 
2 7 39 
2 7 40 
2 12 41 
2 13 42 
2 5 43 
2 8 44 
2 2 45 
2 4 46 
2 2 47 
2 2 48 
2 0 49 
2 0 50 
2 6 51 
2 4 52 
2 8 53 
2 8 54 
2 9 55 
2 6 56 
2 9 57 
2 9 58 
2 11 59 
2 0 60 
2 13 61 
2 13 62 
2 14 63 
2 17 64 
2 17 65 
2 19 66 
2 19 67 
2 14 68 
2 19 69 
2 19 70 
2 24 71 
2 20 72 
2 26 73 
2 20 74 
2 22 75 
2 20 76 
2 14 77 
2 15 78 
2 18 79 
2 15 80 
2 14 81 
2 16 82 
2 15 83 
2 21 84 
2 18 85 
2 11 86 
2 21 87 
2 21 88 
2 25 89 
2 23 90 
2 20 91 
2 27 92 
2 7 29 
2 3 30 
2 7 31 
2 5 32 
2 7 33 
2 12 34 
2 13 35 
2 13 36 
2 8 37 
2 8 38 
2 13 39 
2 10 40 
2 17 41 
2 17 42 
2 10 43 
2 13 44 
2 9 45 
2 9 46 
2 4 47 
2 8 48 
2 2 49 
2 8 50 
2 9 51 
2 6 52 
2 9 53 
2 14 54 
2 14 55 
2 11 56 
2 11 57 
2 15 58 
2 15 59 
2 1 60 
2 14 61 
2 19 62 
2 19 63 
2 19 64 
2 22 65 
2 22 66 
2 20 67 
2 20 68 
2 26 69 
2 24 70 
2 26 71 
2 26 72 
2 28 73 
2 28 74 
2 24 75 
2 21 76 
2 21 77 
2 21 78 
2 21 79 
2 18 80 
2 15 81 
2 18 82 
2 16 83 
2 23 84 
2 23 85 
2 16 86 
2 25 87 
2 27 88 
2 27 89 
2 25 90 
2 27 91 
2 28 92 
2 29 30 
2 29 31 
2 30 31 
2 31 32 
2 31 33 
2 32 33 
2 34 36 
2 34 35 
2 35 36 
2 29 38 
2 29 37 
2 37 38 
2 36 40 
2 36 39 
2 39 40 
2 35 41 
2 35 42 
2 41 42 
2 33 43 
2 33 40 
2 40 43 
2 37 39 
2 37 44 
2 39 44 
2 45 47 
2 45 46 
2 46 47 
2 48 49 
2 48 50 
2 49 50 
2 46 52 
2 46 51 
2 51 52 
2 53 54 
2 53 55 
2 54 55 
2 51 56 
2 51 57 
2 56 57 
2 57 58 
2 57 59 
2 58 59 
2 45 48 
2 45 53 
2 48 53 
2 38 60 
2 38 50 
2 50 60 
2 44 54 
2 44 61 
2 54 61 
2 61 62 
2 61 63 
2 62 63 
2 42 62 
2 42 64 
2 62 64 
2 64 65 
2 64 66 
2 65 66 
2 63 68 
2 63 67 
2 67 68 
2 69 70 
2 69 71 
2 70 71 
2 72 74 
2 72 73 
2 73 74 
2 67 69 
2 67 72 
2 69 72 
2 66 70 
2 66 75 
2 70 75 
2 68 77 
2 68 76 
2 76 77 
2 78 80 
2 78 79 
2 79 80 
2 77 81 
2 77 78 
2 78 81 
2 80 83 
2 80 82 
2 82 83 
2 79 85 
2 79 84 
2 84 85 
2 59 86 
2 59 83 
2 83 86 
2 87 88 
2 87 89 
2 88 89 
2 84 87 
2 84 90 
2 87 90 
2 76 91 
2 76 88 
2 88 91 
2 74 91 
2 74 92 
2 91 92 
2 55 58 
2 55 81 
2 58 81 
3 1 29 30 
3 3 31 32 
3 10 34 36 
3 1 29 38 
3 10 36 40 
3 12 35 41 
3 5 33 43 
3 7 37 39 
3 2 45 47 
3 2 48 49 
3 4 46 52 
3 8 53 54 
3 6 51 56 
3 9 57 58 
3 2 45 48 
3 1 38 60 
3 8 44 54 
3 13 61 62 
3 13 42 62 
3 17 64 65 
3 14 63 68 
3 19 69 70 
3 20 72 74 
3 19 67 69 
3 19 66 70 
3 14 68 77 
3 15 78 80 
3 14 77 81 
3 15 80 83 
3 18 79 85 
3 11 59 86 
3 21 87 88 
3 21 84 87 
3 20 76 91 
3 20 74 91 
3 9 55 58 
3 7 29 31 
3 3 30 31 
3 29 30 31 
3 7 31 33 
3 5 32 33 
3 31 32 33 
3 12 34 35 
3 13 35 36 
3 34 35 36 
3 7 29 37 
3 8 37 38 
3 29 37 38 
3 13 36 39 
3 7 39 40 
3 36 39 40 
3 13 35 42 
3 17 41 42 
3 35 41 42 
3 7 33 40 
3 10 40 43 
3 33 40 43 
3 8 37 44 
3 13 39 44 
3 37 39 44 
3 9 45 46 
3 4 46 47 
3 45 46 47 
3 8 48 50 
3 0 49 50 
3 48 49 50 
3 9 46 51 
3 6 51 52 
3 46 51 52 
3 9 53 55 
3 14 54 55 
3 53 54 55 
3 9 51 57 
3 11 56 57 
3 51 56 57 
3 11 57 59 
3 15 58 59 
3 57 58 59 
3 9 45 53 
3 8 48 53 
3 45 48 53 
3 8 38 50 
3 0 50 60 
3 38 50 60 
3 13 44 61 
3 14 54 61 
3 44 54 61 
3 14 61 63 
3 19 62 63 
3 61 62 63 
3 17 42 64 
3 19 62 64 
3 42 62 64 
3 19 64 66 
3 22 65 66 
3 64 65 66 
3 19 63 67 
3 20 67 68 
3 63 67 68 
3 26 69 71 
3 24 70 71 
3 69 70 71 
3 26 72 73 
3 28 73 74 
3 72 73 74 
3 20 67 72 
3 26 69 72 
3 67 69 72 
3 22 66 75 
3 24 70 75 
3 66 70 75 
3 20 68 76 
3 21 76 77 
3 68 76 77 
3 21 78 79 
3 18 79 80 
3 78 79 80 
3 21 77 78 
3 15 78 81 
3 77 78 81 
3 18 80 82 
3 16 82 83 
3 80 82 83 
3 21 79 84 
3 23 84 85 
3 79 84 85 
3 15 59 83 
3 16 83 86 
3 59 83 86 
3 25 87 89 
3 27 88 89 
3 87 88 89 
3 23 84 90 
3 25 87 90 
3 84 87 90 
3 21 76 88 
3 27 88 91 
3 76 88 91 
3 28 74 92 
3 27 91 92 
3 74 91 92 
3 14 55 81 
3 15 58 81 
3 55 58 81 


CELL_TYPES 380
3 
3 
3 
3 
3 
3 
3 
3 
3 
3 
3 
3 
3 
3 
3 
3 
3 
3 
3 
3 
3 
3 
3 
3 
3 
3 
3 
3 
3 
3 
3 
3 
3 
3 
3 
3 
3 
3 
3 
3 
3 
3 
3 
3 
3 
3 
3 
3 
3 
3 
3 
3 
3 
3 
3 
3 
3 
3 
3 
3 
3 
3 
3 
3 
3 
3 
3 
3 
3 
3 
3 
3 
3 
3 
3 
3 
3 
3 
3 
3 
3 
3 
3 
3 
3 
3 
3 
3 
3 
3 
3 
3 
3 
3 
3 
3 
3 
3 
3 
3 
3 
3 
3 
3 
3 
3 
3 
3 
3 
3 
3 
3 
3 
3 
3 
3 
3 
3 
3 
3 
3 
3 
3 
3 
3 
3 
3 
3 
3 
3 
3 
3 
3 
3 
3 
3 
3 
3 
3 
3 
3 
3 
3 
3 
3 
3 
3 
3 
3 
3 
3 
3 
3 
3 
3 
3 
3 
3 
3 
3 
3 
3 
3 
3 
3 
3 
3 
3 
3 
3 
3 
3 
3 
3 
3 
3 
3 
3 
3 
3 
3 
3 
3 
3 
3 
3 
3 
3 
3 
3 
3 
3 
3 
3 
3 
3 
3 
3 
3 
3 
3 
3 
3 
3 
3 
3 
3 
3 
3 
3 
3 
3 
3 
3 
3 
3 
3 
3 
3 
3 
3 
3 
3 
3 
3 
3 
3 
3 
3 
3 
3 
3 
3 
3 
3 
3 
5 
5 
5 
5 
5 
5 
5 
5 
5 
5 
5 
5 
5 
5 
5 
5 
5 
5 
5 
5 
5 
5 
5 
5 
5 
5 
5 
5 
5 
5 
5 
5 
5 
5 
5 
5 
5 
5 
5 
5 
5 
5 
5 
5 
5 
5 
5 
5 
5 
5 
5 
5 
5 
5 
5 
5 
5 
5 
5 
5 
5 
5 
5 
5 
5 
5 
5 
5 
5 
5 
5 
5 
5 
5 
5 
5 
5 
5 
5 
5 
5 
5 
5 
5 
5 
5 
5 
5 
5 
5 
5 
5 
5 
5 
5 
5 
5 
5 
5 
5 
5 
5 
5 
5 
5 
5 
5 
5 
5 
5 
5 
5 
5 
5 
5 
5 
5 
5 
5 
5 
5 
5 
5 
5 
5 
5 
5 
5 
5 
5 
5 
5 
5 
5 
5 
5 
5 
5 
5 
5 
5 
5 
5 
5 


POINT_DATA 93 
VECTORS nss float
0.0236385 0.999721 0 
-0.448075 0.893996 0 
0.460501 0.887659 0 
-0.692598 0.721324 0 
0.686968 0.726687 0 
-0.862946 0.505296 0 
0.856428 0.516267 0 
-0.983794 0.179304 0 
0.998604 0.0528248 0 
0.967935 0.251202 0 
-0.966426 0.256944 0 
0.962873 0.269954 0 
0.999983 0.00582682 0 
0.999422 0.0339917 0 
0.99907 0.0431167 0 
0.999423 0.0339798 0 
0.999983 0.00583625 0 
0.962873 0.269955 0 
-0.966458 0.256824 0 
0.967855 0.25151 0 
0.998578 0.0533031 0 
-0.984163 0.177267 0 
0.856408 0.5163 0 
-0.863313 0.50467 0 
0.68693 0.726724 0 
-0.693277 0.720671 0 
0.460499 0.88766 0 
-0.4481 0.893984 0 
0.0238792 0.999715 0 
-0.956229 0.29262 0 
-0.623075 0.782162 0 
-0.945666 0.32514 0 
-0.807784 0.589478 0 
-0.959125 0.282982 0 
-0.992815 0.119661 0 
0.999687 0.0250263 0 
-0.998494 0.0548605 0 
-0.99763 0.0688107 0 
-0.997376 0.072396 0 
-0.997943 0.0641051 0 
-0.978758 0.20502 0 
0.990899 0.134611 0 
0.994262 0.106971 0 
-0.928666 0.370918 0 
-0.999942 0.0107274 0 
0.926321 0.376736 0 
0.922011 0.387163 0 
0.618244 0.785986 0 
0.979272 0.202548 0 
0.300529 0.953773 0 
0.997213 0.0746058 0 
0.942154 0.33518 0 
0.798593 0.601871 0 
0.986393 0.164402 0 
0.998953 0.0457546 0 
0.995345 0.0963765 0 
0.922572 0.385824 0 
0.967054 0.25457 0 
0.991033 0.133619 0 
0.994261 0.106982 0 
-0.248609 0.968604 0 
0.999161 0.0409495 0 
0.991018 0.133728 0 
0.995329 0.0965446 0 
0.967024 0.254686 0 
0.922553 0.38587 0 
0.942081 0.335387 0 
0.986308 0.164911 0 
0.998974 0.0452867 0 
0.926113 0.377246 0 
0.921871 0.387498 0 
0.618167 0.786047 0 
0.979112 0.203322 0 
0.300719 0.953713 0 
0.99715 0.0754459 0 
0.79855 0.601929 0 
-0.997676 0.0681349 0 
-0.99993 0.0118194 0 
-0.997963 0.063799 0 
-0.978921 0.204238 0 
-0.998505 0.0546621 0 
0.999183 0.0404164 0 
-0.99282 0.119616 0 
0.999685 0.0251103 0 
-0.959636 0.281246 0 
-0.928759 0.370684 0 
0.990897 0.134625 0 
-0.946428 0.322915 0 
-0.956717 0.291021 0 
-0.623408 0.781897 0 
-0.808387 0.588652 0 
-0.997438 0.0715394 0 
-0.248225 0.968703 0 


