# vtk DataFile Version 3.0 
Exported using Morpho https://github.com/Morpho-lang/morpho 
ASCII 
DATASET UNSTRUCTURED_GRID 

POINTS 93 float 
-1 0 0 
-0.951057 -0.309017 0 
-0.951057 0.309017 0 
-0.809017 -0.587785 0 
-0.809017 0.587785 0 
-0.587785 -0.809017 0 
-0.587785 0.809017 0 
-0.5 -0.5 0 
-0.5 0 0 
-0.5 0.5 0 
-0.309017 -0.951057 0 
-0.309017 0.951057 0 
0 -1 0 
0 -0.5 0 
0 0 0 
0 0.5 0 
0 1 0 
0.309017 -0.951057 0 
0.309017 0.951057 0 
0.5 -0.5 0 
0.5 0 0 
0.5 0.5 0 
0.587785 -0.809017 0 
0.587785 0.809017 0 
0.809017 -0.587785 0 
0.809017 0.587785 0 
0.951057 -0.309017 0 
0.951057 0.309017 0 
1 0 0 
-0.725529 -0.404508 0 
-0.880037 -0.448401 0 
-0.654508 -0.543893 0 
-0.698401 -0.698401 0 
-0.543893 -0.654508 0 
-0.154508 -0.975529 0 
0 -0.75 0 
-0.154508 -0.725529 0 
-0.5 -0.25 0 
-0.725529 -0.154508 0 
-0.25 -0.5 0 
-0.404508 -0.725529 0 
0.154508 -0.975529 0 
0.154508 -0.725529 0 
-0.448401 -0.880037 0 
-0.25 -0.25 0 
-0.725529 0.404508 0 
-0.654508 0.543893 0 
-0.880037 0.448401 0 
-0.725529 0.154508 0 
-0.975529 0.154508 0 
-0.75 0 0 
-0.543893 0.654508 0 
-0.698401 0.698401 0 
-0.5 0.25 0 
-0.25 0 0 
-0.25 0.25 0 
-0.448401 0.880037 0 
-0.404508 0.725529 0 
-0.25 0.5 0 
-0.154508 0.725529 0 
-0.975529 -0.154508 0 
0 -0.25 0 
0.25 -0.5 0 
0.25 -0.25 0 
0.404508 -0.725529 0 
0.448401 -0.880037 0 
0.543893 -0.654508 0 
0.5 -0.25 0 
0.25 0 0 
0.725529 -0.404508 0 
0.654508 -0.543893 0 
0.880037 -0.448401 0 
0.725529 -0.154508 0 
0.975529 -0.154508 0 
0.75 0 0 
0.698401 -0.698401 0 
0.5 0.25 0 
0.25 0.25 0 
0.25 0.5 0 
0.404508 0.725529 0 
0.154508 0.725529 0 
0 0.25 0 
0.154508 0.975529 0 
0 0.75 0 
0.543893 0.654508 0 
0.448401 0.880037 0 
-0.154508 0.975529 0 
0.654508 0.543893 0 
0.725529 0.404508 0 
0.880037 0.448401 0 
0.698401 0.698401 0 
0.725529 0.154508 0 
0.975529 0.154508 0 


CELLS 380 1284 
2 1 29 
2 1 30 
2 3 31 
2 3 32 
2 5 33 
2 10 34 
2 12 35 
2 10 36 
2 7 37 
2 1 38 
2 7 39 
2 7 40 
2 12 41 
2 13 42 
2 5 43 
2 8 44 
2 2 45 
2 4 46 
2 2 47 
2 2 48 
2 0 49 
2 0 50 
2 6 51 
2 4 52 
2 8 53 
2 8 54 
2 9 55 
2 6 56 
2 9 57 
2 9 58 
2 11 59 
2 0 60 
2 13 61 
2 13 62 
2 14 63 
2 17 64 
2 17 65 
2 19 66 
2 19 67 
2 14 68 
2 19 69 
2 19 70 
2 24 71 
2 20 72 
2 26 73 
2 20 74 
2 22 75 
2 20 76 
2 14 77 
2 15 78 
2 18 79 
2 15 80 
2 14 81 
2 16 82 
2 15 83 
2 21 84 
2 18 85 
2 11 86 
2 21 87 
2 21 88 
2 25 89 
2 23 90 
2 20 91 
2 27 92 
2 7 29 
2 3 30 
2 7 31 
2 5 32 
2 7 33 
2 12 34 
2 13 35 
2 13 36 
2 8 37 
2 8 38 
2 13 39 
2 10 40 
2 17 41 
2 17 42 
2 10 43 
2 13 44 
2 9 45 
2 9 46 
2 4 47 
2 8 48 
2 2 49 
2 8 50 
2 9 51 
2 6 52 
2 9 53 
2 14 54 
2 14 55 
2 11 56 
2 11 57 
2 15 58 
2 15 59 
2 1 60 
2 14 61 
2 19 62 
2 19 63 
2 19 64 
2 22 65 
2 22 66 
2 20 67 
2 20 68 
2 26 69 
2 24 70 
2 26 71 
2 26 72 
2 28 73 
2 28 74 
2 24 75 
2 21 76 
2 21 77 
2 21 78 
2 21 79 
2 18 80 
2 15 81 
2 18 82 
2 16 83 
2 23 84 
2 23 85 
2 16 86 
2 25 87 
2 27 88 
2 27 89 
2 25 90 
2 27 91 
2 28 92 
2 29 30 
2 29 31 
2 30 31 
2 31 32 
2 31 33 
2 32 33 
2 34 36 
2 34 35 
2 35 36 
2 29 38 
2 29 37 
2 37 38 
2 36 40 
2 36 39 
2 39 40 
2 35 41 
2 35 42 
2 41 42 
2 33 43 
2 33 40 
2 40 43 
2 37 39 
2 37 44 
2 39 44 
2 45 47 
2 45 46 
2 46 47 
2 48 49 
2 48 50 
2 49 50 
2 46 52 
2 46 51 
2 51 52 
2 53 54 
2 53 55 
2 54 55 
2 51 56 
2 51 57 
2 56 57 
2 57 58 
2 57 59 
2 58 59 
2 45 48 
2 45 53 
2 48 53 
2 38 60 
2 38 50 
2 50 60 
2 44 54 
2 44 61 
2 54 61 
2 61 62 
2 61 63 
2 62 63 
2 42 62 
2 42 64 
2 62 64 
2 64 65 
2 64 66 
2 65 66 
2 63 68 
2 63 67 
2 67 68 
2 69 70 
2 69 71 
2 70 71 
2 72 74 
2 72 73 
2 73 74 
2 67 69 
2 67 72 
2 69 72 
2 66 70 
2 66 75 
2 70 75 
2 68 77 
2 68 76 
2 76 77 
2 78 80 
2 78 79 
2 79 80 
2 77 81 
2 77 78 
2 78 81 
2 80 83 
2 80 82 
2 82 83 
2 79 85 
2 79 84 
2 84 85 
2 59 86 
2 59 83 
2 83 86 
2 87 88 
2 87 89 
2 88 89 
2 84 87 
2 84 90 
2 87 90 
2 76 91 
2 76 88 
2 88 91 
2 74 91 
2 74 92 
2 91 92 
2 55 58 
2 55 81 
2 58 81 
3 1 29 30 
3 3 31 32 
3 10 34 36 
3 1 29 38 
3 10 36 40 
3 12 35 41 
3 5 33 43 
3 7 37 39 
3 2 45 47 
3 2 48 49 
3 4 46 52 
3 8 53 54 
3 6 51 56 
3 9 57 58 
3 2 45 48 
3 1 38 60 
3 8 44 54 
3 13 61 62 
3 13 42 62 
3 17 64 65 
3 14 63 68 
3 19 69 70 
3 20 72 74 
3 19 67 69 
3 19 66 70 
3 14 68 77 
3 15 78 80 
3 14 77 81 
3 15 80 83 
3 18 79 85 
3 11 59 86 
3 21 87 88 
3 21 84 87 
3 20 76 91 
3 20 74 91 
3 9 55 58 
3 7 29 31 
3 3 30 31 
3 29 30 31 
3 7 31 33 
3 5 32 33 
3 31 32 33 
3 12 34 35 
3 13 35 36 
3 34 35 36 
3 7 29 37 
3 8 37 38 
3 29 37 38 
3 13 36 39 
3 7 39 40 
3 36 39 40 
3 13 35 42 
3 17 41 42 
3 35 41 42 
3 7 33 40 
3 10 40 43 
3 33 40 43 
3 8 37 44 
3 13 39 44 
3 37 39 44 
3 9 45 46 
3 4 46 47 
3 45 46 47 
3 8 48 50 
3 0 49 50 
3 48 49 50 
3 9 46 51 
3 6 51 52 
3 46 51 52 
3 9 53 55 
3 14 54 55 
3 53 54 55 
3 9 51 57 
3 11 56 57 
3 51 56 57 
3 11 57 59 
3 15 58 59 
3 57 58 59 
3 9 45 53 
3 8 48 53 
3 45 48 53 
3 8 38 50 
3 0 50 60 
3 38 50 60 
3 13 44 61 
3 14 54 61 
3 44 54 61 
3 14 61 63 
3 19 62 63 
3 61 62 63 
3 17 42 64 
3 19 62 64 
3 42 62 64 
3 19 64 66 
3 22 65 66 
3 64 65 66 
3 19 63 67 
3 20 67 68 
3 63 67 68 
3 26 69 71 
3 24 70 71 
3 69 70 71 
3 26 72 73 
3 28 73 74 
3 72 73 74 
3 20 67 72 
3 26 69 72 
3 67 69 72 
3 22 66 75 
3 24 70 75 
3 66 70 75 
3 20 68 76 
3 21 76 77 
3 68 76 77 
3 21 78 79 
3 18 79 80 
3 78 79 80 
3 21 77 78 
3 15 78 81 
3 77 78 81 
3 18 80 82 
3 16 82 83 
3 80 82 83 
3 21 79 84 
3 23 84 85 
3 79 84 85 
3 15 59 83 
3 16 83 86 
3 59 83 86 
3 25 87 89 
3 27 88 89 
3 87 88 89 
3 23 84 90 
3 25 87 90 
3 84 87 90 
3 21 76 88 
3 27 88 91 
3 76 88 91 
3 28 74 92 
3 27 91 92 
3 74 91 92 
3 14 55 81 
3 15 58 81 
3 55 58 81 


CELL_TYPES 380
3 
3 
3 
3 
3 
3 
3 
3 
3 
3 
3 
3 
3 
3 
3 
3 
3 
3 
3 
3 
3 
3 
3 
3 
3 
3 
3 
3 
3 
3 
3 
3 
3 
3 
3 
3 
3 
3 
3 
3 
3 
3 
3 
3 
3 
3 
3 
3 
3 
3 
3 
3 
3 
3 
3 
3 
3 
3 
3 
3 
3 
3 
3 
3 
3 
3 
3 
3 
3 
3 
3 
3 
3 
3 
3 
3 
3 
3 
3 
3 
3 
3 
3 
3 
3 
3 
3 
3 
3 
3 
3 
3 
3 
3 
3 
3 
3 
3 
3 
3 
3 
3 
3 
3 
3 
3 
3 
3 
3 
3 
3 
3 
3 
3 
3 
3 
3 
3 
3 
3 
3 
3 
3 
3 
3 
3 
3 
3 
3 
3 
3 
3 
3 
3 
3 
3 
3 
3 
3 
3 
3 
3 
3 
3 
3 
3 
3 
3 
3 
3 
3 
3 
3 
3 
3 
3 
3 
3 
3 
3 
3 
3 
3 
3 
3 
3 
3 
3 
3 
3 
3 
3 
3 
3 
3 
3 
3 
3 
3 
3 
3 
3 
3 
3 
3 
3 
3 
3 
3 
3 
3 
3 
3 
3 
3 
3 
3 
3 
3 
3 
3 
3 
3 
3 
3 
3 
3 
3 
3 
3 
3 
3 
3 
3 
3 
3 
3 
3 
3 
3 
3 
3 
3 
3 
3 
3 
3 
3 
3 
3 
3 
3 
3 
3 
3 
3 
5 
5 
5 
5 
5 
5 
5 
5 
5 
5 
5 
5 
5 
5 
5 
5 
5 
5 
5 
5 
5 
5 
5 
5 
5 
5 
5 
5 
5 
5 
5 
5 
5 
5 
5 
5 
5 
5 
5 
5 
5 
5 
5 
5 
5 
5 
5 
5 
5 
5 
5 
5 
5 
5 
5 
5 
5 
5 
5 
5 
5 
5 
5 
5 
5 
5 
5 
5 
5 
5 
5 
5 
5 
5 
5 
5 
5 
5 
5 
5 
5 
5 
5 
5 
5 
5 
5 
5 
5 
5 
5 
5 
5 
5 
5 
5 
5 
5 
5 
5 
5 
5 
5 
5 
5 
5 
5 
5 
5 
5 
5 
5 
5 
5 
5 
5 
5 
5 
5 
5 
5 
5 
5 
5 
5 
5 
5 
5 
5 
5 
5 
5 
5 
5 
5 
5 
5 
5 
5 
5 
5 
5 
5 
5 


POINT_DATA 93 
SCALARS s float 1 
LOOKUP_TABLE default 
0.3593 
0.408049 
0.440962 
0.499039 
0.518747 
0.564452 
0.575622 
1.41224 
1.539 
1.44387 
0.626245 
0.630618 
0.604053 
1.56909 
1.5823 
1.56776 
0.604038 
0.630618 
0.626267 
1.44383 
1.53538 
1.42922 
0.575654 
0.564707 
0.518824 
0.498803 
0.441184 
0.407679 
0.359365 
1.0062 
0.479692 
1.05583 
0.598143 
1.1407 
0.677932 
1.45562 
1.45103 
1.51411 
1.13212 
1.55268 
1.2436 
0.680635 
1.45388 
0.651527 
1.57317 
1.06595 
1.10361 
0.515219 
1.16761 
0.366951 
1.06659 
1.17097 
0.618905 
1.52345 
1.58047 
1.58137 
0.660406 
1.25868 
1.5528 
1.45386 
0.33646 
1.58036 
1.55316 
1.58151 
1.25868 
0.660416 
1.17101 
1.52272 
1.58654 
1.06611 
1.10366 
0.515439 
1.1675 
0.367199 
1.06628 
0.618972 
1.51536 
1.58209 
1.55123 
1.24493 
1.45111 
1.58408 
0.677923 
1.45561 
1.14482 
0.651491 
0.680648 
1.05994 
1.00773 
0.479204 
0.598191 
1.13229 
0.336321 


